 Gaussian 09, Revision D.01,
 Gaussian 09:  EM64L-G09RevD.01 24-Apr-2013

 -------------------------------------------
 #P force Test IOp(2/15=1,5/32=2,5/38=1) PM6
 -------------------------------------------

 ---------------------------------------------------------
 ch2nh2 iop(9/40=20) Point 1 -- low level on model system.
 ---------------------------------------------------------
 Symbolic Z-matrix:
 Charge =  0 Multiplicity = 1

                          Input orientation:
 ---------------------------------------------------------------------
 Center     Atomic      Atomic             Coordinates (Angstroms)
 Number     Number       Type             X           Y           Z
 ---------------------------------------------------------------------
      1          8    10081003       -0.368705   -2.194245    0.000000
      2          1    10011000        0.591295   -2.194245    0.000000
      3          1    10011000       -0.689160   -1.289309    0.000000
      4          8           6       -2.347122    0.341727    0.000000
      5          1           6       -1.387122    0.341727    0.000000
      6          1           6       -2.667577    1.246662    0.000000
 ---------------------------------------------------------------------

 SCF Done:  E(RPM6) = -0.817828507586E-01 A.U. after   11 cycles

 Alpha  occ. eigenvalues --   -1.10628  -0.69720  -0.51423  -0.43431
 Alpha virt. eigenvalues --    0.14263   0.22037

 Mulliken charges:
               1
     1  O   -0.615978
     2  H    0.308547
     3  H    0.307431
     4  O   -0.834000
     5  H    0.417000
     6  H    0.417000
 Sum of Mulliken charges =   0.00000

 Dipole moment (field-independent basis, Debye):
    X=              2.4585    Y=              3.4730    Z=              0.0000  Tot=              4.2551
 N-N= 1.671370377304D+01 E-N=-2.442987004523D+01  KE=-3.657075350503D+00
 Leave Link  601 at Sat Mar 21 09:45:39 2015, MaxMem=    33554432 cpu:         0.0
 (Enter /opt/g09_D01_em64t/g09/l701.exe)
 Compute integral first derivatives.
 ... and contract with generalized density number  0.
 Leave Link  701 at Sat Mar 21 09:45:39 2015, MaxMem=    33554432 cpu:         0.0
 (Enter /opt/g09_D01_em64t/g09/l702.exe)
 L702 exits ... SP integral derivatives will be done elsewhere.
 Leave Link  702 at Sat Mar 21 09:45:39 2015, MaxMem=    33554432 cpu:         0.0
 (Enter /opt/g09_D01_em64t/g09/l703.exe)

 Normal termination of Gaussian 09 at Sat Mar 21 09:45:39 2015.
