 Gaussian 09, Revision D.01,
 Gaussian 09:  EM64L-G09RevD.01 24-Apr-2013

 -------------------------------------------
 #P force Test IOp(2/15=1,5/32=2,5/38=1) PM6
 -------------------------------------------

 --------------------------------------------------------
 ch2nh2 iop(9/40=20) Point 3 -- low level on real system.
 --------------------------------------------------------
 Symbolic Z-matrix:
 Charge =  0 Multiplicity = 1

                          Input orientation:
 ---------------------------------------------------------------------
 Center     Atomic      Atomic             Coordinates (Angstroms)
 Number     Number       Type             X           Y           Z
 ---------------------------------------------------------------------
      1          8    10081003       -0.368705   -2.194245    0.000000
      2          1    10011000        0.591295   -2.194245    0.000000
      3          1    10011000       -0.689160   -1.289309    0.000000
      4          8    10081003       -2.347122    0.341727    0.000000
      5          1    10011000       -1.387122    0.341727    0.000000
      6          1    10011000       -2.667577    1.246662    0.000000
 ---------------------------------------------------------------------

 SCF Done:  E(RPM6) = -0.169696977887     A.U. after   12 cycles

 Alpha  occ. eigenvalues --   -1.12645  -1.09991  -0.72508  -0.68336  -0.52717
 Alpha  occ. eigenvalues --   -0.51306  -0.44687  -0.43398
 Alpha virt. eigenvalues --    0.11737   0.15436   0.20694   0.22433

 Mulliken charges:
               1
     1  O   -0.617454
     2  H    0.309058
     3  H    0.307271
     4  O   -0.616429
     5  H    0.299656
     6  H    0.317899
 Sum of Mulliken charges =   0.00000

 Dipole moment (field-independent basis, Debye):
    X=              2.2937    Y=              3.3756    Z=              0.0000  Tot=              4.0812
 N-N= 4.345243549843D+01 E-N=-6.861372512165D+01  KE=-7.518769751455D+00
 Leave Link  601 at Sat Mar 21 09:45:35 2015, MaxMem=    33554432 cpu:         0.0
 (Enter /opt/g09_D01_em64t/g09/l701.exe)
 Compute integral first derivatives.
 ... and contract with generalized density number  0.
 Leave Link  701 at Sat Mar 21 09:45:35 2015, MaxMem=    33554432 cpu:         0.0
 (Enter /opt/g09_D01_em64t/g09/l702.exe)
 L702 exits ... SP integral derivatives will be done elsewhere.
 Leave Link  702 at Sat Mar 21 09:45:35 2015, MaxMem=    33554432 cpu:         0.0
 (Enter /opt/g09_D01_em64t/g09/l703.exe)

 Normal termination of Gaussian 09 at Sat Mar 21 09:45:35 2015.
