 Gaussian 09, Revision D.01,
 Gaussian 09:  EM64L-G09RevD.01 24-Apr-2013

 ----------------------------------------------------------------
 # force b3lyp/6-31G** scf=(tight,maxcycle=10000) nosymm pop=full
 ----------------------------------------------------------------

 -------
 [0] [0]
 -------
 Symbolic Z-matrix:
 Charge =  1 Multiplicity = 1

                          Input orientation:
 ---------------------------------------------------------------------
 Center     Atomic      Atomic             Coordinates (Angstroms)
 Number     Number       Type             X           Y           Z
 ---------------------------------------------------------------------
      1          6           0       -5.533818    0.712513    0.405709
      2          7           0       -1.475722    0.180569    0.110256
      3          1           0       -6.118728    1.643865    2.289570
      4          1           0       -6.637086   -0.434167   -1.085929
      5          1           0       -0.854823   -0.987832   -1.334323
      6          1           0       -0.400556    0.854887    1.601777
 ---------------------------------------------------------------------

 SCF Done:  E(RB3LYP) =  -94.0708657955     A.U. after   29 cycles

 Alpha  occ. eigenvalues --  -14.69766 -10.59603  -0.93315  -0.76887  -0.53278
 Alpha  occ. eigenvalues --   -0.48857  -0.48387  -0.43328
 Alpha virt. eigenvalues --   -0.40862  -0.35227  -0.35074  -0.33041  -0.30456
 Alpha virt. eigenvalues --   -0.28471   0.32062   0.32950   0.40587   0.42755
 Alpha virt. eigenvalues --    0.47100   0.49331   0.53855   0.53939   0.61385

 Mulliken charges:
               1
     1  C    0.218521
     2  N   -0.042301
     3  H    0.145654
     4  H    0.145689
     5  H    0.266207
     6  H    0.266230
 Sum of Mulliken charges =   1.00000

 Dipole moment (field-independent basis, Debye):
    X=            -16.1108    Y=              1.4025    Z=              1.5890  Tot=             16.2496
 Quadrupole moment (field-independent basis, Debye-Ang):
   XX=             75.4918   YY=             -8.6584   ZZ=             -2.8598
   XY=             -8.3836   XZ=             -6.2596   YZ=              7.0278

 Normal termination of Gaussian 09 at Sat Nov 15 23:39:13 2014.
