 Gaussian 09, Revision D.01,

 ------------------------------------------------------
 #P IOp(2/15=1,5/32=2,5/38=1) B3LYP/6-31G(D,P) pop=full
 ------------------------------------------------------

 ---------------------------------------------
 ch2nh2 Point 2 -- high level on model system.
 ---------------------------------------------
 Symbolic Z-matrix:
 Charge =  0 Multiplicity = 1

 SCF Done:  E(RB3LYP) =  -75.5442755925     A.U. after    9 cycles
 Normal termination of Gaussian 09 at Wed Mar 25 09:50:36 2015.
 Gaussian 09:  EM64L-G09RevD.01 24-Apr-2013

 ----------------------------------------------------------------------
 #P force B3LYP/6-31G(D,P) TD(SINGLET,nstates=2,root=1) IOp(2/15=1,5/32
 =2,5/38=1) geom=AllCheck Guess=Read iop(9/40=20) pop=full
 ----------------------------------------------------------------------

 Structure from the checkpoint file:  "onlyinputfiles.chk"
 ---------------------------------------------
 ch2nh2 Point 2 -- high level on model system.
 ---------------------------------------------
 Charge =  0 Multiplicity = 1

                          Input orientation:
 ---------------------------------------------------------------------
 Center     Atomic      Atomic             Coordinates (Angstroms)
 Number     Number       Type             X           Y           Z
 ---------------------------------------------------------------------
      1          8    10081003       -0.195110   -1.161144    0.000000
      2          1    10011000        0.312900   -1.161144    0.000000
      3          1    10011000       -0.364688   -0.682273    0.000000
      4          8           6       -1.242044    0.180834    0.000000
      5          1           6       -0.734033    0.180834    0.000000
      6          1           6       -1.411621    0.659705    0.000000
 ---------------------------------------------------------------------

 SCF Done:  E(RB3LYP) =  -75.5442755925     A.U. after    1 cycles

 Excitation energies and oscillator strengths:

 Excited state symmetry could not be determined.
 Excited State   1:      Singlet-?Sym   11.4694 eV  108.10 nm  f=0.0708  <S**2>=0.000
       2 ->  6         0.00000
       2 ->  7         0.00000
       2 ->  8         0.00000
       2 ->  9         0.00366
       2 -> 10         0.00000
       2 -> 11         0.00000
       2 -> 12         0.00000
       2 -> 13         0.00000
       2 -> 14        -0.00010
       2 -> 15         0.00000
       2 -> 16        -0.00032
       2 -> 17         0.00000
       2 -> 18         0.00000
       2 -> 19         0.00000
       2 -> 20         0.00006
       2 -> 21         0.00098
       2 -> 22         0.00000
       2 -> 23         0.00000
       2 -> 24         0.00000
       2 -> 25         0.00000
       3 ->  6         0.00000
       3 ->  7         0.00000
       3 ->  8         0.00000
       3 ->  9         0.00017
       3 -> 10         0.00000
       3 -> 11         0.00000
       3 -> 12         0.00000
       3 -> 13         0.00000
       3 -> 14        -0.00158
       3 -> 15         0.00000
       3 -> 16        -0.00007
       3 -> 17         0.00000
       3 -> 18         0.00000
       3 -> 19         0.00000
       3 -> 20        -0.00009
       3 -> 21        -0.00002
       3 -> 22         0.00000
       3 -> 23         0.00000
       3 -> 24         0.00000
       3 -> 25         0.00000
       4 ->  6         0.00000
       4 ->  7         0.00000
       4 ->  8         0.00000
       4 ->  9        -0.00412
       4 -> 10         0.00000
       4 -> 11         0.00000
       4 -> 12         0.00000
       4 -> 13         0.00000
       4 -> 14         0.00007
       4 -> 15         0.00000
       4 -> 16        -0.00150
       4 -> 17         0.00000
       4 -> 18         0.00000
       4 -> 19         0.00000
       4 -> 20         0.00002
       4 -> 21        -0.00037
       4 -> 22         0.00000
       4 -> 23         0.00000
       4 -> 24         0.00000
       4 -> 25         0.00000
       5 ->  6         0.70709
       5 ->  7         0.00264
       5 ->  8        -0.00845
       5 ->  9         0.00000
       5 -> 10         0.00158
       5 -> 11        -0.00429
       5 -> 12        -0.00059
       5 -> 13        -0.00100
       5 -> 14         0.00000
       5 -> 15        -0.00056
       5 -> 16         0.00000
       5 -> 17         0.00113
       5 -> 18        -0.00015
       5 -> 19         0.00005
       5 -> 20         0.00000
       5 -> 21         0.00000
       5 -> 22        -0.00083
       5 -> 23        -0.00031
       5 -> 24         0.00003
       5 -> 25        -0.00040
       2 <-  6         0.00000
       2 <-  7         0.00000
       2 <-  8         0.00000
       2 <-  9         0.00206
       2 <- 10         0.00000
       2 <- 11         0.00000
       2 <- 12         0.00000
       2 <- 13         0.00000
       2 <- 14        -0.00005
       2 <- 15         0.00000
       2 <- 16        -0.00005
       2 <- 17         0.00000
       2 <- 18         0.00000
       2 <- 19         0.00000
       2 <- 20         0.00003
       2 <- 21         0.00036
       2 <- 22         0.00000
       2 <- 23         0.00000
       2 <- 24         0.00000
       2 <- 25         0.00000
       3 <-  6         0.00000
       3 <-  7         0.00000
       3 <-  8         0.00000
       3 <-  9        -0.00023
       3 <- 10         0.00000
       3 <- 11         0.00000
       3 <- 12         0.00000
       3 <- 13         0.00000
       3 <- 14        -0.00081
       3 <- 15         0.00000
       3 <- 16        -0.00005
       3 <- 17         0.00000
       3 <- 18         0.00000
       3 <- 19         0.00000
       3 <- 20        -0.00009
       3 <- 21        -0.00007
       3 <- 22         0.00000
       3 <- 23         0.00000
       3 <- 24         0.00000
       3 <- 25         0.00000
       4 <-  6         0.00000
       4 <-  7         0.00000
       4 <-  8         0.00000
       4 <-  9        -0.00313
       4 <- 10         0.00000
       4 <- 11         0.00000
       4 <- 12         0.00000
       4 <- 13         0.00000
       4 <- 14         0.00007
       4 <- 15         0.00000
       4 <- 16        -0.00091
       4 <- 17         0.00000
       4 <- 18         0.00000
       4 <- 19         0.00000
       4 <- 20         0.00001
       4 <- 21        -0.00028
       4 <- 22         0.00000
       4 <- 23         0.00000
       4 <- 24         0.00000
       4 <- 25         0.00000
       5 <-  6        -0.00794
       5 <-  7         0.00063
       5 <-  8        -0.00106
       5 <-  9         0.00000
       5 <- 10        -0.00012
       5 <- 11         0.00446
       5 <- 12        -0.00030
       5 <- 13         0.00220
       5 <- 14         0.00000
       5 <- 15        -0.00076
       5 <- 16         0.00000
       5 <- 17         0.00085
       5 <- 18        -0.00002
       5 <- 19        -0.00003
       5 <- 20         0.00000
       5 <- 21         0.00000
       5 <- 22        -0.00110
       5 <- 23        -0.00115
       5 <- 24        -0.00001
       5 <- 25        -0.00053
 This state for optimization and/or second-order correction.
 Total Energy, E(TD-HF/TD-KS) =  -75.1227822834
 Copying the excited state density for this state as the 1-particle RhoCI density.

 Excited state symmetry could not be determined.
 Excited State   2:      Singlet-?Sym   13.1242 eV   94.47 nm  f=0.0400  <S**2>=0.000
       2 ->  6         0.00055
       2 ->  7         0.00040
       2 ->  8         0.00279
       2 ->  9         0.00000
       2 -> 10        -0.00024
       2 -> 11         0.00069
       2 -> 12        -0.00049
       2 -> 13         0.00115
       2 -> 14         0.00000
       2 -> 15         0.00042
       2 -> 16         0.00000
       2 -> 17        -0.00063
       2 -> 18         0.00005
       2 -> 19        -0.00001
       2 -> 20         0.00000
       2 -> 21         0.00000
       2 -> 22         0.00022
       2 -> 23        -0.00067
       2 -> 24         0.00005
       2 -> 25         0.00002
       3 ->  6        -0.00006
       3 ->  7        -0.00273
       3 ->  8         0.00015
       3 ->  9         0.00000
       3 -> 10        -0.00213
       3 -> 11        -0.00011
       3 -> 12        -0.00141
       3 -> 13        -0.00056
       3 -> 14         0.00000
       3 -> 15         0.00004
       3 -> 16         0.00000
       3 -> 17         0.00019
       3 -> 18         0.00067
       3 -> 19        -0.00096
       3 -> 20         0.00000
       3 -> 21         0.00000
       3 -> 22         0.00010
       3 -> 23         0.00004
       3 -> 24         0.00084
       3 -> 25         0.00004
       4 ->  6         0.70702
       4 ->  7         0.00025
       4 ->  8        -0.01026
       4 ->  9         0.00000
       4 -> 10         0.00140
       4 -> 11        -0.00573
       4 -> 12        -0.00044
       4 -> 13        -0.00189
       4 -> 14         0.00000
       4 -> 15         0.00296
       4 -> 16         0.00000
       4 -> 17         0.00061
       4 -> 18        -0.00005
       4 -> 19         0.00012
       4 -> 20         0.00000
       4 -> 21         0.00000
       4 -> 22        -0.00071
       4 -> 23         0.00025
       4 -> 24         0.00006
       4 -> 25         0.00015
       5 ->  6         0.00000
       5 ->  7         0.00000
       5 ->  8         0.00000
       5 ->  9         0.00094
       5 -> 10         0.00000
       5 -> 11         0.00000
       5 -> 12         0.00000
       5 -> 13         0.00000
       5 -> 14        -0.00006
       5 -> 15         0.00000
       5 -> 16        -0.00214
       5 -> 17         0.00000
       5 -> 18         0.00000
       5 -> 19         0.00000
       5 -> 20         0.00010
       5 -> 21        -0.00006
       5 -> 22         0.00000
       5 -> 23         0.00000
       5 -> 24         0.00000
       5 -> 25         0.00000
       2 <-  6        -0.00146
       2 <-  7         0.00021
       2 <-  8         0.00132
       2 <-  9         0.00000
       2 <- 10        -0.00012
       2 <- 11         0.00119
       2 <- 12        -0.00031
       2 <- 13         0.00077
       2 <- 14         0.00000
       2 <- 15         0.00014
       2 <- 16         0.00000
       2 <- 17        -0.00020
       2 <- 18         0.00003
       2 <- 19        -0.00002
       2 <- 20         0.00000
       2 <- 21         0.00000
       2 <- 22        -0.00026
       2 <- 23        -0.00043
       2 <- 24         0.00005
       2 <- 25         0.00018
       3 <-  6         0.00005
       3 <-  7        -0.00039
       3 <-  8        -0.00016
       3 <-  9         0.00000
       3 <- 10        -0.00070
       3 <- 11         0.00000
       3 <- 12        -0.00077
       3 <- 13        -0.00034
       3 <- 14         0.00000
       3 <- 15         0.00004
       3 <- 16         0.00000
       3 <- 17         0.00019
       3 <- 18         0.00046
       3 <- 19        -0.00072
       3 <- 20         0.00000
       3 <- 21         0.00000
       3 <- 22         0.00002
       3 <- 23         0.00004
       3 <- 24         0.00069
       3 <- 25         0.00005
       4 <-  6        -0.00450
       4 <-  7         0.00019
       4 <-  8        -0.00350
       4 <-  9         0.00000
       4 <- 10        -0.00013
       4 <- 11         0.00323
       4 <- 12        -0.00016
       4 <- 13         0.00144
       4 <- 14         0.00000
       4 <- 15         0.00138
       4 <- 16         0.00000
       4 <- 17         0.00044
       4 <- 18         0.00003
       4 <- 19         0.00006
       4 <- 20         0.00000
       4 <- 21         0.00000
       4 <- 22        -0.00093
       4 <- 23        -0.00076
       4 <- 24         0.00001
       4 <- 25        -0.00007
       5 <-  6         0.00000
       5 <-  7         0.00000
       5 <-  8         0.00000
       5 <-  9        -0.00070
       5 <- 10         0.00000
       5 <- 11         0.00000
       5 <- 12         0.00000
       5 <- 13         0.00000
       5 <- 14        -0.00003
       5 <- 15         0.00000
       5 <- 16        -0.00129
       5 <- 17         0.00000
       5 <- 18         0.00000
       5 <- 19         0.00000
       5 <- 20         0.00007
       5 <- 21        -0.00003
       5 <- 22         0.00000
       5 <- 23         0.00000
       5 <- 24         0.00000
       5 <- 25         0.00000

 Alpha  occ. eigenvalues --  -19.10594  -1.29576  -0.76787  -0.40529  -0.34470
 Alpha virt. eigenvalues --    0.13741   0.25188   0.77422   0.82825   0.96236
 Alpha virt. eigenvalues --    1.23339   1.44249   1.46664   1.67264   1.70572
 Alpha virt. eigenvalues --    1.73788   2.99324   3.08125   3.22094   3.26278

 Mulliken charges:
               1
     1  O   -0.106995
     2  H    0.056704
     3  H    0.050290
     4  O   -0.834000
     5  H    0.417000
     6  H    0.417000
 Sum of Mulliken charges =   0.00000

 Dipole moment (field-independent basis, Debye):
    X=              1.5028    Y=              2.1947    Z=              0.0000  Tot=              2.6600
 Quadrupole moment (field-independent basis, Debye-Ang):
   XX=             -6.1925   YY=             -7.1301   ZZ=             -6.0350
   XY=             -2.7732   XZ=              0.0000   YZ=              0.0000

 Normal termination of Gaussian 09 at Wed Mar 25 09:50:41 2015.
