 Gaussian 09, Revision D.01,
 Gaussian 09:  EM64L-G09RevD.01 24-Apr-2013

 ------------------------------------------------
 #P B3LYP/6-31G(D,P) TD(SINGLET,NSTATES=3,ROOT=1)
 ------------------------------------------------

 ---------------------------------------------
 ch2nh2 Point 2 -- high level on model system.
 ---------------------------------------------
 Symbolic Z-matrix:
 Charge =  0 Multiplicity = 1

                         Standard orientation:
 ---------------------------------------------------------------------
 Center     Atomic      Atomic             Coordinates (Angstroms)
 Number     Number       Type             X           Y           Z
 ---------------------------------------------------------------------
      1          8           0        0.000000    0.000000    0.110812
      2          1           0        0.000000    0.783976   -0.443248
      3          1           0        0.000000   -0.783976   -0.443248
 ---------------------------------------------------------------------

 SCF Done:  E(RB3LYP) =  -76.4189292079     A.U. after    9 cycles

 Excitation energies and oscillator strengths:

 Excited State   1:      Singlet-B1     8.0310 eV  154.38 nm  f=0.0140  <S**2>=0.000
       5 ->  6         0.70714
 This state for optimization and/or second-order correction.
 Total Energy, E(TD-HF/TD-KS) =  -76.1237957817
 Copying the excited state density for this state as the 1-particle RhoCI density.

 Excited State   2:      Singlet-A2    10.1038 eV  122.71 nm  f=0.0000  <S**2>=0.000
       5 ->  7         0.70666

 Excited State   3:      Singlet-A1    10.2447 eV  121.02 nm  f=0.0834  <S**2>=0.000
       4 ->  6         0.70316

 The electronic state is 1-A1.
 Alpha  occ. eigenvalues --  -19.13400  -0.99453  -0.52634  -0.35965  -0.29032
 Alpha virt. eigenvalues --    0.06722   0.15449   0.77849   0.79540   0.88825
 Alpha virt. eigenvalues --    0.89280   1.01925   1.15973   1.51863   1.57894
 Alpha virt. eigenvalues --    1.66293   2.23120   2.24126   2.48016   2.63303

 Mulliken charges:
               1
     1  O   -0.619572
     2  H    0.309786
     3  H    0.309786
 Sum of Mulliken charges =   0.00000

 Dipole moment (field-independent basis, Debye):
    X=              0.0000    Y=              0.0000    Z=             -1.9531  Tot=              1.9531
 Quadrupole moment (field-independent basis, Debye-Ang):
   XX=             -7.1262   YY=             -4.0540   ZZ=             -6.1132
   XY=              0.0000   XZ=              0.0000   YZ=              0.0000

 Normal termination of Gaussian 09 at Mon Mar 16 15:42:53 2015.
