 Gaussian 09, Revision D.01,
 Gaussian 09:  EM64L-G09RevD.01 24-Apr-2013

 ----------------------------------------------------------------------
 #p td(singlet,nstates=3,root=1) oniom(b3lyp/6-31g(d,p):uff)=(embed,inp
 utfiles) nosymm geom=connectivity pop=full iop(9/40=20)
 ----------------------------------------------------------------------

 ------
 ch2nh2
 ------
 Symbolic Z-matrix:
 Charge =  0 Multiplicity = 1 for low   level calculation on real  system.
 Charge =  0 Multiplicity = 1 for high  level calculation on model system.
 Charge =  0 Multiplicity = 1 for low   level calculation on model system.

                          Input orientation:
 ---------------------------------------------------------------------
 Center     Atomic      Atomic             Coordinates (Angstroms)
 Number     Number       Type             X           Y           Z
 ---------------------------------------------------------------------
      1          8    10081003       -0.368705   -2.194245    0.000000
      2          1    10011000        0.591295   -2.194245    0.000000
      3          1    10011000       -0.689160   -1.289309    0.000000
      4          8    10081003       -2.347122    0.341727    0.000000
      5          1    10011000       -1.387122    0.341727    0.000000
      6          1    10011000       -2.667577    1.246662    0.000000
 ---------------------------------------------------------------------

 --------------------------------------------------------------------------------
 #P Test IOp(2/15=1,5/32=2,5/38=1) UFF

 ch2nh2
 Point  3 -- low level on real system.

 0,1
  O-O_3--0.834000                                  -0.368705030000     -2.194244570000      0.000000000000

 Energy=    3.300713945E-02 NIter=   0.

 --------------------------------------------------------------------------------
 #P Test IOp(2/15=1,5/32=2,5/38=1) B3LYP/6-31G(D,P)

 ch2nh2
 Point  2 -- high level on model system.

 0,1
  O-O_3--0.834000                                  -0.368705030000     -2.194244570000      0.000000000000

 SCF Done:  E(RB3LYP) =  -76.7397877961     A.U. after    8 cycles

 Excitation energies and oscillator strengths:

 Excited state symmetry could not be determined.
 Excited State   1:      Singlet-?Sym    7.8905 eV  157.13 nm  f=0.0137  <S**2>=0.000
       2 ->  6         0.00000
       2 ->  7         0.00000
       2 ->  8         0.00000
       2 ->  9         0.00000
       2 -> 10         0.00000
       2 -> 11         0.00631
       2 -> 12         0.00000
       2 -> 13         0.00000
       2 -> 14         0.00016
       2 -> 15         0.00000
       2 -> 16        -0.00329
       2 -> 17         0.00000
       2 -> 18         0.00000
       2 -> 19         0.00000
       2 -> 20         0.00091
       2 -> 21         0.00000
       2 -> 22         0.00000
       2 -> 23         0.00000
       2 -> 24         0.00000
       2 -> 25         0.00000
       3 ->  6         0.00000
       3 ->  7         0.00000
       3 ->  8         0.00000
       3 ->  9         0.00000
       3 -> 10         0.00000
       3 -> 11        -0.00007
       3 -> 12         0.00000
       3 -> 13         0.00000
       3 -> 14        -0.00627
       3 -> 15         0.00000
       3 -> 16         0.00005
       3 -> 17         0.00000
       3 -> 18         0.00000
       3 -> 19         0.00000
       3 -> 20         0.00001
       3 -> 21        -0.00171
       3 -> 22         0.00000
       3 -> 23         0.00000
       3 -> 24         0.00000
       3 -> 25         0.00000
       4 ->  6         0.00000
       4 ->  7         0.00000
       4 ->  8         0.00000
       4 ->  9         0.00000
       4 -> 10         0.00000
       4 -> 11        -0.00280
       4 -> 12         0.00000
       4 -> 13         0.00000
       4 -> 14        -0.00006
       4 -> 15         0.00000
       4 -> 16        -0.00531
       4 -> 17         0.00000
       4 -> 18         0.00000
       4 -> 19         0.00000
       4 -> 20         0.00155
       4 -> 21        -0.00011
       4 -> 22         0.00000
       4 -> 23         0.00000
       4 -> 24         0.00000
       4 -> 25         0.00000
       5 ->  6         0.70714
       5 ->  7         0.00295
       5 ->  8         0.00081
       5 ->  9        -0.00949
       5 -> 10         0.00939
       5 -> 11         0.00000
       5 -> 12         0.00044
       5 -> 13        -0.00770
       5 -> 14         0.00000
       5 -> 15        -0.00553
       5 -> 16         0.00000
       5 -> 17         0.00007
       5 -> 18         0.00504
       5 -> 19         0.00007
       5 -> 20         0.00000
       5 -> 21         0.00000
       5 -> 22         0.00029
       5 -> 23         0.00100
       5 -> 24         0.00001
       5 -> 25        -0.00082
       2 <-  6         0.00000
       2 <-  7         0.00000
       2 <-  8         0.00000
       2 <-  9         0.00000
       2 <- 10         0.00000
       2 <- 11         0.00286
       2 <- 12         0.00000
       2 <- 13         0.00000
       2 <- 14         0.00012
       2 <- 15         0.00000
       2 <- 16        -0.00257
       2 <- 17         0.00000
       2 <- 18         0.00000
       2 <- 19         0.00000
       2 <- 20         0.00100
       2 <- 21         0.00002
       2 <- 22         0.00000
       2 <- 23         0.00000
       2 <- 24         0.00000
       2 <- 25         0.00000
       3 <-  6         0.00000
       3 <-  7         0.00000
       3 <-  8         0.00000
       3 <-  9         0.00000
       3 <- 10         0.00000
       3 <- 11         0.00019
       3 <- 12         0.00000
       3 <- 13         0.00000
       3 <- 14        -0.00525
       3 <- 15         0.00000
       3 <- 16         0.00007
       3 <- 17         0.00000
       3 <- 18         0.00000
       3 <- 19         0.00000
       3 <- 20         0.00000
       3 <- 21        -0.00153
       3 <- 22         0.00000
       3 <- 23         0.00000
       3 <- 24         0.00000
       3 <- 25         0.00000
       4 <-  6         0.00000
       4 <-  7         0.00000
       4 <-  8         0.00000
       4 <-  9         0.00000
       4 <- 10         0.00000
       4 <- 11        -0.00608
       4 <- 12         0.00000
       4 <- 13         0.00000
       4 <- 14         0.00000
       4 <- 15         0.00000
       4 <- 16        -0.00407
       4 <- 17         0.00000
       4 <- 18         0.00000
       4 <- 19         0.00000
       4 <- 20         0.00104
       4 <- 21        -0.00008
       4 <- 22         0.00000
       4 <- 23         0.00000
       4 <- 24         0.00000
       4 <- 25         0.00000
       5 <-  6        -0.01642
       5 <-  7         0.00024
       5 <-  8        -0.00041
       5 <-  9         0.00652
       5 <- 10         0.00487
       5 <- 11         0.00000
       5 <- 12        -0.00008
       5 <- 13         0.00305
       5 <- 14         0.00000
       5 <- 15        -0.00285
       5 <- 16         0.00000
       5 <- 17         0.00005
       5 <- 18         0.00491
       5 <- 19         0.00002
       5 <- 20         0.00000
       5 <- 21         0.00000
       5 <- 22         0.00007
       5 <- 23        -0.00053
       5 <- 24        -0.00001
       5 <- 25        -0.00091
 This state for optimization and/or second-order correction.
 Total Energy, E(TD-HF/TD-KS) =  -76.4498156824
 Copying the excited state density for this state as the 1-particle RhoCI density.

 Excited state symmetry could not be determined.
 Excited State   2:      Singlet-?Sym    9.9588 eV  124.50 nm  f=0.0000  <S**2>=0.000
       2 ->  6         0.00000
       2 ->  7         0.00000
       2 ->  8         0.00000
       2 ->  9         0.00000
       2 -> 10         0.00000
       2 -> 11        -0.00027
       2 -> 12         0.00000
       2 -> 13         0.00000
       2 -> 14         0.00415
       2 -> 15         0.00000
       2 -> 16         0.00012
       2 -> 17         0.00000
       2 -> 18         0.00000
       2 -> 19         0.00000
       2 -> 20        -0.00002
       2 -> 21         0.00061
       2 -> 22         0.00000
       2 -> 23         0.00000
       2 -> 24         0.00000
       2 -> 25         0.00000
       3 ->  6         0.00000
       3 ->  7         0.00000
       3 ->  8         0.00000
       3 ->  9         0.00000
       3 -> 10         0.00000
       3 -> 11        -0.00197
       3 -> 12         0.00000
       3 -> 13         0.00000
       3 -> 14         0.00024
       3 -> 15         0.00000
       3 -> 16         0.00099
       3 -> 17         0.00000
       3 -> 18         0.00000
       3 -> 19         0.00000
       3 -> 20         0.00123
       3 -> 21         0.00007
       3 -> 22         0.00000
       3 -> 23         0.00000
       3 -> 24         0.00000
       3 -> 25         0.00000
       4 ->  6         0.00000
       4 ->  7         0.00000
       4 ->  8         0.00000
       4 ->  9         0.00000
       4 -> 10         0.00000
       4 -> 11         0.00012
       4 -> 12         0.00000
       4 -> 13         0.00000
       4 -> 14        -0.00093
       4 -> 15         0.00000
       4 -> 16         0.00024
       4 -> 17         0.00000
       4 -> 18         0.00000
       4 -> 19         0.00000
       4 -> 20        -0.00010
       4 -> 21        -0.00169
       4 -> 22         0.00000
       4 -> 23         0.00000
       4 -> 24         0.00000
       4 -> 25         0.00000
       5 ->  6        -0.00298
       5 ->  7         0.70666
       5 ->  8         0.01855
       5 ->  9         0.00078
       5 -> 10         0.00011
       5 -> 11         0.00000
       5 -> 12         0.01813
       5 -> 13         0.00039
       5 -> 14         0.00000
       5 -> 15         0.00022
       5 -> 16         0.00000
       5 -> 17         0.00100
       5 -> 18        -0.00024
       5 -> 19         0.00163
       5 -> 20         0.00000
       5 -> 21         0.00000
       5 -> 22        -0.00001
       5 -> 23        -0.00004
       5 -> 24         0.00067
       5 -> 25         0.00004
       2 <-  6         0.00000
       2 <-  7         0.00000
       2 <-  8         0.00000
       2 <-  9         0.00000
       2 <- 10         0.00000
       2 <- 11        -0.00012
       2 <- 12         0.00000
       2 <- 13         0.00000
       2 <- 14         0.00294
       2 <- 15         0.00000
       2 <- 16         0.00009
       2 <- 17         0.00000
       2 <- 18         0.00000
       2 <- 19         0.00000
       2 <- 20        -0.00001
       2 <- 21         0.00104
       2 <- 22         0.00000
       2 <- 23         0.00000
       2 <- 24         0.00000
       2 <- 25         0.00000
       3 <-  6         0.00000
       3 <-  7         0.00000
       3 <-  8         0.00000
       3 <-  9         0.00000
       3 <- 10         0.00000
       3 <- 11         0.00468
       3 <- 12         0.00000
       3 <- 13         0.00000
       3 <- 14         0.00018
       3 <- 15         0.00000
       3 <- 16         0.00143
       3 <- 17         0.00000
       3 <- 18         0.00000
       3 <- 19         0.00000
       3 <- 20         0.00091
       3 <- 21         0.00006
       3 <- 22         0.00000
       3 <- 23         0.00000
       3 <- 24         0.00000
       3 <- 25         0.00000
       4 <-  6         0.00000
       4 <-  7         0.00000
       4 <-  8         0.00000
       4 <-  9         0.00000
       4 <- 10         0.00000
       4 <- 11         0.00023
       4 <- 12         0.00000
       4 <- 13         0.00000
       4 <- 14         0.00042
       4 <- 15         0.00000
       4 <- 16         0.00017
       4 <- 17         0.00000
       4 <- 18         0.00000
       4 <- 19         0.00000
       4 <- 20        -0.00007
       4 <- 21        -0.00125
       4 <- 22         0.00000
       4 <- 23         0.00000
       4 <- 24         0.00000
       4 <- 25         0.00000
       5 <-  6         0.00033
       5 <-  7        -0.00621
       5 <-  8        -0.00251
       5 <-  9        -0.00030
       5 <- 10        -0.00024
       5 <- 11         0.00000
       5 <- 12        -0.00120
       5 <- 13        -0.00013
       5 <- 14         0.00000
       5 <- 15         0.00011
       5 <- 16         0.00000
       5 <- 17         0.00033
       5 <- 18        -0.00020
       5 <- 19        -0.00008
       5 <- 20         0.00000
       5 <- 21         0.00000
       5 <- 22        -0.00001
       5 <- 23         0.00001
       5 <- 24        -0.00061
       5 <- 25         0.00004

 Excited state symmetry could not be determined.
 Excited State   3:      Singlet-?Sym   10.1321 eV  122.37 nm  f=0.0840  <S**2>=0.000
       2 ->  6        -0.02104
       2 ->  7         0.00114
       2 ->  8        -0.00030
       2 ->  9         0.00892
       2 -> 10         0.00198
       2 -> 11         0.00000
       2 -> 12         0.00004
       2 -> 13         0.00674
       2 -> 14         0.00000
       2 -> 15         0.00311
       2 -> 16         0.00000
       2 -> 17         0.00003
       2 -> 18         0.00034
       2 -> 19        -0.00001
       2 -> 20         0.00000
       2 -> 21         0.00000
       2 -> 22        -0.00077
       2 -> 23        -0.00155
       2 -> 24         0.00000
       2 -> 25        -0.00017
       3 ->  6         0.00607
       3 ->  7         0.07282
       3 ->  8         0.01234
       3 ->  9        -0.00055
       3 -> 10         0.00015
       3 -> 11         0.00000
       3 -> 12         0.01164
       3 -> 13         0.00023
       3 -> 14         0.00000
       3 -> 15        -0.00021
       3 -> 16         0.00000
       3 -> 17        -0.00149
       3 -> 18        -0.00016
       3 -> 19        -0.00082
       3 -> 20         0.00000
       3 -> 21         0.00000
       3 -> 22         0.00008
       3 -> 23        -0.00001
       3 -> 24         0.00113
       3 -> 25         0.00001
       4 ->  6         0.70296
       4 ->  7         0.00149
       4 ->  8         0.00004
       4 ->  9        -0.00182
       4 -> 10        -0.01181
       4 -> 11         0.00000
       4 -> 12         0.00067
       4 -> 13        -0.00491
       4 -> 14         0.00000
       4 -> 15        -0.00436
       4 -> 16         0.00000
       4 -> 17        -0.00003
       4 -> 18        -0.00224
       4 -> 19        -0.00020
       4 -> 20         0.00000
       4 -> 21         0.00000
       4 -> 22         0.00008
       4 -> 23         0.00053
       4 -> 24         0.00011
       4 -> 25         0.00031
       5 ->  6         0.00000
       5 ->  7         0.00000
       5 ->  8         0.00000
       5 ->  9         0.00000
       5 -> 10         0.00000
       5 -> 11         0.02337
       5 -> 12         0.00000
       5 -> 13         0.00000
       5 -> 14        -0.00058
       5 -> 15         0.00000
       5 -> 16         0.00185
       5 -> 17         0.00000
       5 -> 18         0.00000
       5 -> 19         0.00000
       5 -> 20         0.00121
       5 -> 21        -0.00018
       5 -> 22         0.00000
       5 -> 23         0.00000
       5 -> 24         0.00000
       5 -> 25         0.00000
       2 <-  6        -0.00954
       2 <-  7         0.00052
       2 <-  8        -0.00019
       2 <-  9         0.00475
       2 <- 10         0.00255
       2 <- 11         0.00000
       2 <- 12         0.00001
       2 <- 13         0.00443
       2 <- 14         0.00000
       2 <- 15         0.00226
       2 <- 16         0.00000
       2 <- 17         0.00001
       2 <- 18         0.00009
       2 <- 19         0.00000
       2 <- 20         0.00000
       2 <- 21         0.00000
       2 <- 22        -0.00079
       2 <- 23        -0.00103
       2 <- 24        -0.00001
       2 <- 25        -0.00052
       3 <-  6         0.00085
       3 <-  7         0.01793
       3 <-  8         0.00531
       3 <-  9        -0.00019
       3 <- 10        -0.00011
       3 <- 11         0.00000
       3 <- 12         0.00668
       3 <- 13         0.00021
       3 <- 14         0.00000
       3 <- 15        -0.00017
       3 <- 16         0.00000
       3 <- 17        -0.00130
       3 <- 18        -0.00011
       3 <- 19        -0.00089
       3 <- 20         0.00000
       3 <- 21         0.00000
       3 <- 22         0.00006
       3 <- 23        -0.00002
       3 <- 24         0.00083
       3 <- 25         0.00003
       4 <-  6        -0.01921
       4 <-  7        -0.00001
       4 <-  8        -0.00063
       4 <-  9         0.00684
       4 <- 10        -0.00303
       4 <- 11         0.00000
       4 <- 12         0.00003
       4 <- 13         0.00319
       4 <- 14         0.00000
       4 <- 15        -0.00230
       4 <- 16         0.00000
       4 <- 17        -0.00002
       4 <- 18        -0.00038
       4 <- 19        -0.00018
       4 <- 20         0.00000
       4 <- 21         0.00000
       4 <- 22         0.00017
       4 <- 23        -0.00060
       4 <- 24         0.00008
       4 <- 25        -0.00031
       5 <-  6         0.00000
       5 <-  7         0.00000
       5 <-  8         0.00000
       5 <-  9         0.00000
       5 <- 10         0.00000
       5 <- 11         0.01094
       5 <- 12         0.00000
       5 <- 13         0.00000
       5 <- 14        -0.00038
       5 <- 15         0.00000
       5 <- 16         0.00199
       5 <- 17         0.00000
       5 <- 18         0.00000
       5 <- 19         0.00000
       5 <- 20         0.00064
       5 <- 21        -0.00014
       5 <- 22         0.00000
       5 <- 23         0.00000
       5 <- 24         0.00000
       5 <- 25         0.00000

 Alpha  occ. eigenvalues --  -19.13389  -0.99443  -0.52567  -0.35881  -0.28923
 Alpha virt. eigenvalues --    0.06342   0.15015   0.77830   0.79476   0.89042
 Alpha virt. eigenvalues --    0.89450   1.02135   1.15782   1.51940   1.57987
 Alpha virt. eigenvalues --    1.66364   2.23072   2.24114   2.47919   2.63227

 Mulliken charges:
               1
     1  O   -0.603879
     2  H    0.305136
     3  H    0.298744
     4  O   -0.834000
     5  H    0.417000
     6  H    0.417000
 Sum of Mulliken charges =   0.00000

 Dipole moment (field-independent basis, Debye):
    X=              2.3702    Y=              3.3474    Z=              0.0000  Tot=              4.1015
 Quadrupole moment (field-independent basis, Debye-Ang):
   XX=             -9.3808   YY=             -9.0486   ZZ=             -7.1260
   XY=             -8.1138   XZ=              0.0000   YZ=              0.0000

 --------------------------------------------------------------------------------
 #P Test IOp(2/15=1,5/32=2,5/38=1) UFF

 ch2nh2
 Point  1 -- low level on model system.

 0,1
  O-O_3--0.834000                                  -0.368705030000     -2.194244570000      0.000000000000

 Energy=   -0.317800368     NIter=   0.
 Normal termination of Gaussian 09 at Fri Mar  6 20:45:13 2015.
