 Gaussian 09, Revision D.01,
 Gaussian 09:  EM64L-G09RevD.01 24-Apr-2013

 ----------------------------------------------------------------------
 # force td(singlet,nstates=3,root=1) oniom(b3lyp/6-31g(d):uff)=embed g
 eom=connectivity
 ----------------------------------------------------------------------

 -------------------
 Title Card Required
 -------------------
 Symbolic Z-matrix:
 Charge =  1 Multiplicity = 2 for low   level calculation on real  system.
 Charge =  1 Multiplicity = 2 for high  level calculation on model system.
 Charge =  0 Multiplicity = 1 for low   level calculation on model system.

                         Standard orientation:
 ---------------------------------------------------------------------
 Center     Atomic      Atomic             Coordinates (Angstroms)
 Number     Number       Type             X           Y           Z
 ---------------------------------------------------------------------
      1          8    10081003       -1.392899   -0.059313   -0.045865
      2          1    10011000       -2.313642   -0.124676    0.217878
      3          1    10011000       -1.108829    0.856210    0.006308
      4          8    10081003        1.520234   -0.110719   -0.017318
      5          1    10011000        0.599491   -0.176082    0.246426
      6          1    10011000        1.804304    0.804804    0.034855
 ---------------------------------------------------------------------

 Energy=    2.216858518E-02 NIter=   0.
 SCF Done:  E(UB3LYP) =  -76.2588415691     A.U. after   14 cycles

 Excitation energies and oscillator strengths:

 Excited State   1:  2.002-A      2.2384 eV  553.89 nm  f=0.0010  <S**2>=0.753
      4B ->  5B        1.00008
 This state for optimization and/or second-order correction.
 Total Energy, E(TD-HF/TD-KS) =  -76.1765805972
 Copying the excited state density for this state as the 1-particle RhoCI density.

 Excited State   2:  2.003-A      6.8396 eV  181.27 nm  f=0.0000  <S**2>=0.753
      3B ->  5B        0.99872

 Excited State   3:  3.413-A     13.0652 eV   94.90 nm  f=0.0033  <S**2>=2.663
      5A ->  6A       -0.54021
      4B ->  6B        0.83403

 The electronic state is 2-A.
 Alpha  occ. eigenvalues --  -19.74055  -1.56119  -1.04558  -0.90479  -0.88957
 Alpha virt. eigenvalues --   -0.29802  -0.21424   0.37342   0.38189   0.39652
 Alpha virt. eigenvalues --    0.44863   0.62109   0.73243   1.18754   1.22800
 Alpha virt. eigenvalues --    1.23698   1.77743   2.10543   3.05375
  Beta  occ. eigenvalues --  -19.71328  -1.48967  -1.02412  -0.85887
  Beta virt. eigenvalues --   -0.63809  -0.28732  -0.20817   0.37572   0.41065
  Beta virt. eigenvalues --    0.46417   0.47717   0.63603   0.76013   1.25262
  Beta virt. eigenvalues --    1.25968   1.30159   1.83304   2.11612   3.09787

 Mulliken charges and spin densities:
               1          2
     1  O   -0.125607   1.050519
     2  H    0.568118  -0.025047
     3  H    0.557490  -0.025471
     4  O   -0.834000   0.000000
     5  H    0.417000   0.000000
     6  H    0.417000   0.000000
 Sum of Mulliken charges =   1.00000   1.00000

 Dipole moment (field-independent basis, Debye):
    X=             -9.6324    Y=              3.4982    Z=              1.1590  Tot=             10.3132
 Quadrupole moment (field-independent basis, Debye-Ang):
   XX=              9.1246   YY=             -2.0987   ZZ=             -4.5473
   XY=              1.9597   XZ=             -0.5831   YZ=             -0.2081

 Energy=   -0.325741994     NIter=   0.
 Normal termination of Gaussian 09 at Tue Jan  6 21:42:37 2015.
