 Gaussian 09, Revision D.01,
 Gaussian 09:  EM64L-G09RevD.01 24-Apr-2013

 --------------------------------------------------------------
 # force td=(nstates=3,root=1,singlet) nosymm geom=connectivity
 --------------------------------------------------------------

 ------
 ch2nh2
 ------
 Symbolic Z-matrix:
 Charge =  1 Multiplicity = 1

                          Input orientation:
 ---------------------------------------------------------------------
 Center     Atomic      Atomic             Coordinates (Angstroms)
 Number     Number       Type             X           Y           Z
 ---------------------------------------------------------------------
      1          7    10071002       -3.919836    1.742526   -0.191445
      2          6    10061002       -2.808876    1.087293   -0.290629
      3          1    10011000       -4.785052    1.297683   -0.422780
      4          1    10011000       -3.913433    2.693888    0.116563
      5          1    10011000       -2.815727    0.069336   -0.620198
      6          1    10011000       -1.883095    1.563275   -0.043100
 ---------------------------------------------------------------------

 SCF Done:  E(RHF) =  -93.2295014598     A.U. after    9 cycles

 Excitation energies and oscillator strengths:

 Excited state symmetry could not be determined.
 Excited State   1:      Singlet-?Sym    9.6372 eV  128.65 nm  f=0.0000  <S**2>=0.000
       7 ->  9         0.70122
 This state for optimization and/or second-order correction.
 Total Energy, E(TD-HF/TD-KS) =  -92.8753395786
 Copying the excited state density for this state as the 1-particle RhoCI density.

 Excited state symmetry could not be determined.
 Excited State   2:      Singlet-?Sym   10.8618 eV  114.15 nm  f=0.3998  <S**2>=0.000
       6 -> 13         0.12001
       8 ->  9         0.69744

 Excited state symmetry could not be determined.
 Excited State   3:      Singlet-?Sym   11.5922 eV  106.95 nm  f=0.0065  <S**2>=0.000
       6 ->  9         0.70253

 Alpha  occ. eigenvalues --  -15.79955 -11.49804  -1.54508  -1.17321  -1.04233
 Alpha  occ. eigenvalues --   -0.95838  -0.84904  -0.77849
 Alpha virt. eigenvalues --   -0.08929   0.28297   0.29840   0.35605   0.53097
 Alpha virt. eigenvalues --    0.55991

 Mulliken charges:
               1
     1  N   -0.300419
     2  C    0.198240
     3  H    0.342136
     4  H    0.342136
     5  H    0.208953
     6  H    0.208953
 Sum of Mulliken charges =   1.00000

 Dipole moment (field-independent basis, Debye):
    X=            -16.4234    Y=              6.9516    Z=             -1.1342  Tot=             17.8701
 Quadrupole moment (field-independent basis, Debye-Ang):
   XX=             49.7469   YY=              2.4572   ZZ=            -11.1853
   XY=            -24.6503   XZ=              4.1497   YZ=             -0.3427

 Normal termination of Gaussian 09 at Mon Jan  5 21:39:11 2015.
