 Gaussian 09, Revision D.01,
 Gaussian 09:  EM64L-G09RevD.01 24-Apr-2013

 ----------------------------------------------
 #P Test IOp(2/15=1,5/32=2,5/38=1) B3LYP/6-31G*
 ----------------------------------------------

 --------------------------------------------------------
 ch2nh2 iop(9/40=20) Point 3 -- low level on real system.
 --------------------------------------------------------
 Symbolic Z-matrix:
 Charge =  0 Multiplicity = 1

                          Input orientation:
 ---------------------------------------------------------------------
 Center     Atomic      Atomic             Coordinates (Angstroms)
 Number     Number       Type             X           Y           Z
 ---------------------------------------------------------------------
      1          8           0       -0.368705   -2.194245    0.000000
      2          1           0        0.591295   -2.194245    0.000000
      3          1           0       -0.689160   -1.289309    0.000000
      4          8           0       -2.347122    0.341727    0.000000
      5          1           0       -1.387122    0.341727    0.000000
      6          1           0       -2.667577    1.246662    0.000000
 ---------------------------------------------------------------------

 SCF Done:  E(RB3LYP) =  -152.812128442     A.U. after    9 cycles

 Alpha  occ. eigenvalues --  -19.15082 -19.13328  -1.01509  -0.99623  -0.55757
 Alpha  occ. eigenvalues --   -0.52265  -0.37797  -0.35981  -0.30636  -0.28857
 Alpha virt. eigenvalues --    0.02211   0.09510   0.13444   0.24550   0.77885
 Alpha virt. eigenvalues --    0.82196   0.82681   0.86206   0.87106   0.89718
 Alpha virt. eigenvalues --    0.90001   0.93333   1.05258   1.09955   1.18182

 Mulliken charges:
               1
     1  O   -0.785579
     2  H    0.388282
     3  H    0.391436
     4  O   -0.776540
     5  H    0.379756
     6  H    0.402645
 Sum of Mulliken charges =   0.00000

 Dipole moment (field-independent basis, Debye):
    X=              2.1047    Y=              3.2853    Z=              0.0000  Tot=              3.9016
 Quadrupole moment (field-independent basis, Debye-Ang):
   XX=            -14.7527   YY=            -16.1283   ZZ=            -14.3649
   XY=             -8.2445   XZ=              0.0000   YZ=              0.0000

 Normal termination of Gaussian 09 at Sun Mar 22 10:44:25 2015.
