 Gaussian 09, Revision D.01,
 Gaussian 09:  EM64L-G09RevD.01 24-Apr-2013

 ----------------------------------------------------------------------
 #P Test IOp(2/15=1,5/32=2,5/38=1) B3LYP/6-31G(D,P) TD(SINGLET,NSTATES=
 3,ROOT=1)
 ----------------------------------------------------------------------

 ----------------------------------------------------------
 ch2nh2 iop(9/40=20) Point 2 -- high level on model system.
 ----------------------------------------------------------
 Symbolic Z-matrix:
 Charge =  0 Multiplicity = 1

                          Input orientation:
 ---------------------------------------------------------------------
 Center     Atomic      Atomic             Coordinates (Angstroms)
 Number     Number       Type             X           Y           Z
 ---------------------------------------------------------------------
      1          8           0       -0.368705   -2.194245    0.000000
      2          1           0        0.591295   -2.194245    0.000000
      3          1           0       -0.689160   -1.289309    0.000000
      4          8           6       -2.347122    0.341727    0.000000
      5          1           6       -1.387122    0.341727    0.000000
      6          1           6       -2.667577    1.246662    0.000000
 ---------------------------------------------------------------------

 SCF Done:  E(RB3LYP) =  -76.4189298358     A.U. after    7 cycles

 Excitation energies and oscillator strengths:

 Excited state symmetry could not be determined.
 Excited State   1:      Singlet-?Sym    8.0310 eV  154.38 nm  f=0.0140  <S**2>=0.000
       5 ->  6         0.70714
 This state for optimization and/or second-order correction.
 Total Energy, E(TD-HF/TD-KS) =  -76.1237962412
 Copying the excited state density for this state as the 1-particle RhoCI density.

 Excited state symmetry could not be determined.
 Excited State   2:      Singlet-?Sym   10.1038 eV  122.71 nm  f=0.0000  <S**2>=0.000
       5 ->  7         0.70666

 Excited state symmetry could not be determined.
 Excited State   3:      Singlet-?Sym   10.2448 eV  121.02 nm  f=0.0834  <S**2>=0.000
       4 ->  6         0.70316

 Alpha  occ. eigenvalues --  -19.13400  -0.99453  -0.52634  -0.35965  -0.29032
 Alpha virt. eigenvalues --    0.06722   0.15449   0.77849   0.79540   0.88825
 Alpha virt. eigenvalues --    0.89280   1.01925   1.15973   1.51863   1.57894
 Alpha virt. eigenvalues --    1.66293   2.23120   2.24126   2.48016   2.63303

 Mulliken charges:
               1
     1  O   -0.619573
     2  H    0.309787
     3  H    0.309787
     4  O    0.000000
     5  H    0.000000
     6  H    0.000000
 Sum of Mulliken charges =   0.00000

 Dipole moment (field-independent basis, Debye):
    X=              1.1272    Y=              1.5950    Z=              0.0000  Tot=              1.9531
 Quadrupole moment (field-independent basis, Debye-Ang):
   XX=             -5.4270   YY=            -12.1383   ZZ=             -7.1262
   XY=             -3.8280   XZ=              0.0000   YZ=              0.0000

 Normal termination of Gaussian 09 at Sun Mar 22 10:45:03 2015.
