 Gaussian 09, Revision D.01,
 Gaussian 09:  EM64L-G09RevD.01 24-Apr-2013

 ----------------------------------------------
 #P Test IOp(2/15=1,5/32=2,5/38=1) B3LYP/6-31G*
 ----------------------------------------------

 ---------------------------------------------------------
 ch2nh2 iop(9/40=20) Point 1 -- low level on model system.
 ---------------------------------------------------------
 Symbolic Z-matrix:
 Charge =  0 Multiplicity = 1

                          Input orientation:
 ---------------------------------------------------------------------
 Center     Atomic      Atomic             Coordinates (Angstroms)
 Number     Number       Type             X           Y           Z
 ---------------------------------------------------------------------
      1          8           0       -0.368705   -2.194245    0.000000
      2          1           0        0.591295   -2.194245    0.000000
      3          1           0       -0.689160   -1.289309    0.000000
 ---------------------------------------------------------------------

 SCF Done:  E(RB3LYP) =  -76.4080196266     A.U. after    7 cycles

 Alpha  occ. eigenvalues --  -19.13348  -0.99651  -0.53006  -0.36084  -0.28978
 Alpha virt. eigenvalues --    0.06550   0.15268   0.80048   0.84879   0.89219
 Alpha virt. eigenvalues --    0.89240   1.07367   1.17571   1.73998   1.74508
 Alpha virt. eigenvalues --    1.78547   2.29893   2.59364   3.56652

 Mulliken charges:
               1
     1  O   -0.786748
     2  H    0.393374
     3  H    0.393374
 Sum of Mulliken charges =   0.00000

 Dipole moment (field-independent basis, Debye):
    X=              1.1542    Y=              1.6331    Z=              0.0000  Tot=              1.9998
 Quadrupole moment (field-independent basis, Debye-Ang):
   XX=             -5.4401   YY=            -12.3063   ZZ=             -7.1850
   XY=             -3.9118   XZ=              0.0000   YZ=              0.0000

 Normal termination of Gaussian 09 at Sun Mar 22 10:50:20 2015.
