 Gaussian 09, Revision D.01,
 Gaussian 09:  EM64L-G09RevD.01 24-Apr-2013

 ----------------------------------------------------------------------
 #p force ONIOM(b3lyp/6-31g(d,p) td(singlet,nstates=3,root=1):b3lyp/6-3
 1G*)=(EmbedCharge,inputfiles) nosymm geom=connectivity pop=full
 ----------------------------------------------------------------------

 -------------------
 ch2nh2 iop(9/40=20)
 -------------------
 Symbolic Z-matrix:
 Charge =  0 Multiplicity = 1 for low   level calculation on real  system.
 Charge =  0 Multiplicity = 1 for high  level calculation on model system.
 Charge =  0 Multiplicity = 1 for low   level calculation on model system.

                          Input orientation:
 ---------------------------------------------------------------------
 Center     Atomic      Atomic             Coordinates (Angstroms)
 Number     Number       Type             X           Y           Z
 ---------------------------------------------------------------------
      1          8           0       -0.368705   -2.194245    0.000000
      2          1           0        0.591295   -2.194245    0.000000
      3          1           0       -0.689160   -1.289309    0.000000
      4          8           0       -2.347122    0.341727    0.000000
      5          1           0       -1.387122    0.341727    0.000000
      6          1           0       -2.667577    1.246662    0.000000
 ---------------------------------------------------------------------

 --------------------------------------------------------------------------------
 #P Test IOp(2/15=1,5/32=2,5/38=1) B3LYP/6-31G*

 ch2nh2 iop(9/40=20)
 Point  3 -- low level on real system.

 0,1
  O                                                -0.368705030000     -2.194244570000      0.000000000000

 SCF Done:  E(RB3LYP) =  -152.812128442     A.U. after   10 cycles

 --------------------------------------------------------------------------------
 #P Test IOp(2/15=1,5/32=2,5/38=1) B3LYP/6-31G(D,P) TD(SINGLET,NSTATES=3,ROOT=1)

 ch2nh2 iop(9/40=20)
 Point  2 -- high level on model system.

 0,1
  O                                                -0.368705030000     -2.194244570000      0.000000000000

 SCF Done:  E(RB3LYP) =  -76.4189298358     A.U. after    9 cycles

 Excitation energies and oscillator strengths:

 Excited state symmetry could not be determined.
 Excited State   1:      Singlet-?Sym    8.0310 eV  154.38 nm  f=0.0140  <S**2>=0.000
       5 ->  6         0.70714
 This state for optimization and/or second-order correction.
 Total Energy, E(TD-HF/TD-KS) =  -76.1237962436
 Copying the excited state density for this state as the 1-particle RhoCI density.

 Excited state symmetry could not be determined.
 Excited State   2:      Singlet-?Sym   10.1038 eV  122.71 nm  f=0.0000  <S**2>=0.000
       5 ->  7         0.70666

 Excited state symmetry could not be determined.
 Excited State   3:      Singlet-?Sym   10.2448 eV  121.02 nm  f=0.0834  <S**2>=0.000
       4 ->  6         0.70316

 --------------------------------------------------------------------------------
 #P Test IOp(2/15=1,5/32=2,5/38=1) B3LYP/6-31G*

 ch2nh2 iop(9/40=20)
 Point  1 -- low level on model system.

 0,1
  O                                                -0.368705030000     -2.194244570000      0.000000000000

 SCF Done:  E(RB3LYP) =  -76.4080196266     A.U. after    9 cycles

 Alpha  occ. eigenvalues --  -19.13348  -0.99651  -0.53006  -0.36084  -0.28978
 Alpha virt. eigenvalues --    0.06550   0.15268   0.80048   0.84879   0.89219
 Alpha virt. eigenvalues --    0.89240   1.07367   1.17571   1.73998   1.74508
 Alpha virt. eigenvalues --    1.78547   2.29893   2.59364   3.56652

 Mulliken charges:
               1
     1  O   -0.786748
     2  H    0.393374
     3  H    0.393374
     4  O    0.000000
     5  H    0.000000
     6  H    0.000000
 Sum of Mulliken charges =   0.00000

 Dipole moment (field-independent basis, Debye):
    X=              1.1542    Y=              1.6331    Z=              0.0000  Tot=              1.9998
 Quadrupole moment (field-independent basis, Debye-Ang):
   XX=             -5.4401   YY=            -12.3063   ZZ=             -7.1850
   XY=             -3.9118   XZ=              0.0000   YZ=              0.0000

 Normal termination of Gaussian 09 at Sun Mar 22 10:40:47 2015.
