 Gaussian 09, Revision D.01,
 Gaussian 09:  EM64L-G09RevD.01 24-Apr-2013

 ----------------------------------------------------------------------
 # td(singlet, root=3, nstates=4) cam-b3lyp/6-31G* scf=(xqc, maxcycle=1
 0000) nosymm pop=full density=current
 ----------------------------------------------------------------------

 --------------------
 [0] [0] iop(9/40=20)
 --------------------
 Symbolic Z-matrix:
 Charge =  1 Multiplicity = 1

                          Input orientation:
 ---------------------------------------------------------------------
 Center     Atomic      Atomic             Coordinates (Angstroms)
 Number     Number       Type             X           Y           Z
 ---------------------------------------------------------------------
      1          6           0        0.678094   -0.016756   -0.001189
      2          1           0        1.008626    0.967356    0.058928
      3          1           0        1.372953   -0.804594   -0.121004
      4          7           0       -0.587390   -0.016959    0.023078
      5          1           0       -1.086470    0.979878   -0.220402
      6          1           0       -1.361400   -0.707485   -0.024800
 ---------------------------------------------------------------------

 SCF Done:  E(RCAM-B3LYP) =  -94.8897761271     A.U. after   12 cycles

 Excitation energies and oscillator strengths:

 Excited state symmetry could not be determined.
 Excited State   1:      Singlet-?Sym    7.5674 eV  163.84 nm  f=0.0073  <S**2>=0.000
       7 ->  9        -0.46112
       8 ->  9         0.53354

 Excited state symmetry could not be determined.
 Excited State   2:      Singlet-?Sym    9.6172 eV  128.92 nm  f=0.2563  <S**2>=0.000
       7 ->  9         0.51761
       8 ->  9         0.45301

 Excited state symmetry could not be determined.
 Excited State   3:      Singlet-?Sym   10.7327 eV  115.52 nm  f=0.0516  <S**2>=0.000
       6 ->  9        -0.17177
       7 -> 10         0.13309
       8 -> 10         0.66086
 This state for optimization and/or second-order correction.
 Total Energy, E(TD-HF/TD-KS) =  -94.4953555213
 Copying the excited state density for this state as the 1-particle RhoCI density.

 Excited state symmetry could not be determined.
 Excited State   4:      Singlet-?Sym   11.1673 eV  111.02 nm  f=0.0351  <S**2>=0.000
       6 ->  9         0.67648
       8 -> 10         0.15741

 Alpha  occ. eigenvalues --  -14.76746 -10.61440  -1.32081  -1.03106  -0.89347
 Alpha  occ. eigenvalues --   -0.86519  -0.74381  -0.70439
 Alpha virt. eigenvalues --   -0.26149  -0.14694  -0.09035  -0.03729   0.03606
 Alpha virt. eigenvalues --    0.10026   0.32857   0.33488   0.39345   0.44885
 Alpha virt. eigenvalues --    0.50465   0.56871   0.60830   0.65793   0.70309

 Mulliken charges:
               1
     1  C    0.113095
     2  H    0.277563
     3  H    0.360556
     4  N   -0.165225
     5  H   -0.055824
     6  H    0.469835
 Sum of Mulliken charges =   1.00000

 Dipole moment (field-independent basis, Debye):
    X=              1.4096    Y=             -2.5896    Z=              0.2154  Tot=              2.9563
 Quadrupole moment (field-independent basis, Debye-Ang):
   XX=             -6.6207   YY=            -12.6561   ZZ=            -11.8785
   XY=              2.9263   XZ=             -0.4362   YZ=              0.7523

 Normal termination of Gaussian 09 at Fri Jul 25 16:59:36 2014.
