 Gaussian 09, Revision D.01,
 Gaussian 09:  EM64L-G09RevD.01 24-Apr-2013

 ------------------------------------------------------------------
 # force cam-b3lyp/6-31G* scf=(xqc, maxcycle=10000) nosymm pop=full
 ------------------------------------------------------------------

 --------------------
 [0] [0] iop(9/40=20)
 --------------------
 Symbolic Z-matrix:
 Charge =  1 Multiplicity = 1

                          Input orientation:
 ---------------------------------------------------------------------
 Center     Atomic      Atomic             Coordinates (Angstroms)
 Number     Number       Type             X           Y           Z
 ---------------------------------------------------------------------
      1          6           0        0.678094   -0.016756   -0.001189
      2          1           0        1.008626    0.967356    0.058928
      3          1           0        1.372953   -0.804594   -0.121004
      4          7           0       -0.587390   -0.016959    0.023078
      5          1           0       -1.086470    0.979878   -0.220402
      6          1           0       -1.361400   -0.707485   -0.024800
 ---------------------------------------------------------------------

 SCF Done:  E(RCAM-B3LYP) =  -94.8897761271     A.U. after   12 cycles

 Alpha  occ. eigenvalues --  -14.76746 -10.61440  -1.32081  -1.03106  -0.89347
 Alpha  occ. eigenvalues --   -0.86519  -0.74381  -0.70439
 Alpha virt. eigenvalues --   -0.26149  -0.14694  -0.09035  -0.03729   0.03606
 Alpha virt. eigenvalues --    0.10026   0.32857   0.33488   0.39345   0.44885
 Alpha virt. eigenvalues --    0.50465   0.56871   0.60830   0.65793   0.70309

 Mulliken charges:
               1
     1  C    0.052144
     2  H    0.275626
     3  H    0.315079
     4  N   -0.539915
     5  H    0.443063
     6  H    0.454002
 Sum of Mulliken charges =   1.00000

 Dipole moment (field-independent basis, Debye):
    X=             -0.7114    Y=              0.3477    Z=             -0.5070  Tot=              0.9403
 Quadrupole moment (field-independent basis, Debye-Ang):
   XX=             -3.8565   YY=             -7.7021   ZZ=            -12.0527
   XY=             -0.4522   XZ=              0.4597   YZ=             -0.2799

 Normal termination of Gaussian 09 at Thu Jul 24 19:08:50 2014.
